Program Version,EnergyPlus, Version 9.4.0-998c4b761e, YMD=2021.08.21 15:23
1,5,Environment Title[],Latitude[deg],Longitude[deg],Time Zone[],Elevation[m]
2,8,Day of Simulation[],Month[],Day of Month[],DST Indicator[1=yes 0=no],Hour[],StartMinute[],EndMinute[],DayType
3,5,Cumulative Day of Simulation[],Month[],Day of Month[],DST Indicator[1=yes 0=no],DayType  ! When Daily Meters Requested
4,2,Cumulative Days of Simulation[],Month[]  ! When Monthly Meters Requested
5,1,Cumulative Days of Simulation[] ! When Run Period Meters Requested
6,1,Calendar Year of Simulation[] ! When Annual Meters Requested
12,1,Electricity:Facility [J] !Hourly
1748,1,Fans:Electricity [J] !Hourly
1825,1,Cooling:Electricity [J] !Hourly
1631,1,Heating:Electricity [J] !Hourly
48,1,InteriorLights:Electricity [J] !Hourly
435,1,InteriorEquipment:Electricity [J] !Hourly
1685,1,NaturalGas:Facility [J] !Hourly
1709,1,Heating:NaturalGas [J] !Hourly
2122,1,Water Heater:WaterSystems:NaturalGas [J] !Hourly
14,9,Electricity:Facility [J] !Monthly [Value,Min,Day,Hour,Minute,Max,Day,Hour,Minute]
1687,9,NaturalGas:Facility [J] !Monthly [Value,Min,Day,Hour,Minute,Max,Day,Hour,Minute]
2192,9,CO2:Facility [kg] !Monthly [Value,Min,Day,Hour,Minute,Max,Day,Hour,Minute]
2217,9,CO:Facility [kg] !Monthly [Value,Min,Day,Hour,Minute,Max,Day,Hour,Minute]
2242,9,CH4:Facility [kg] !Monthly [Value,Min,Day,Hour,Minute,Max,Day,Hour,Minute]
2267,9,NOx:Facility [kg] !Monthly [Value,Min,Day,Hour,Minute,Max,Day,Hour,Minute]
2292,9,N2O:Facility [kg] !Monthly [Value,Min,Day,Hour,Minute,Max,Day,Hour,Minute]
2317,9,SO2:Facility [kg] !Monthly [Value,Min,Day,Hour,Minute,Max,Day,Hour,Minute]
2342,9,PM:Facility [kg] !Monthly [Value,Min,Day,Hour,Minute,Max,Day,Hour,Minute]
2367,9,PM10:Facility [kg] !Monthly [Value,Min,Day,Hour,Minute,Max,Day,Hour,Minute]
2392,9,PM2.5:Facility [kg] !Monthly [Value,Min,Day,Hour,Minute,Max,Day,Hour,Minute]
2417,9,NH3:Facility [kg] !Monthly [Value,Min,Day,Hour,Minute,Max,Day,Hour,Minute]
2442,9,NMVOC:Facility [kg] !Monthly [Value,Min,Day,Hour,Minute,Max,Day,Hour,Minute]
2467,9,Hg:Facility [kg] !Monthly [Value,Min,Day,Hour,Minute,Max,Day,Hour,Minute]
2492,9,Pb:Facility [kg] !Monthly [Value,Min,Day,Hour,Minute,Max,Day,Hour,Minute]
2517,9,WaterEnvironmentalFactors:Facility [L] !Monthly [Value,Min,Day,Hour,Minute,Max,Day,Hour,Minute]
2542,9,Nuclear High:Facility [kg] !Monthly [Value,Min,Day,Hour,Minute,Max,Day,Hour,Minute]
2567,9,Nuclear Low:Facility [m3] !Monthly [Value,Min,Day,Hour,Minute,Max,Day,Hour,Minute]
2839,9,Carbon Equivalent:Facility [kg] !Monthly [Value,Min,Day,Hour,Minute,Max,Day,Hour,Minute]
End of Data Dictionary
1,CHICAGO ANN HTG 99.6% CONDNS DB HVAC Sizing Pass 1,  41.98, -87.92,  -6.00, 201.00
2,1, 1,21, 0, 1, 0.00,60.00,WinterDesignDay
12,751104810.9467988
48,0.0
435,0.0
1631,687289287.2534273
1685,19230751.070568205
1709,19158751.070568205
1748,10490739.35454788
1825,0.0
2122,72000.0
2,1, 1,21, 0, 2, 0.00,60.00,WinterDesignDay
12,601764258.9107409
48,0.0
435,0.0
1631,540046883.088279
1685,17563287.54067087
1709,13592070.607288253
1748,8392591.483638306
1825,0.0
2122,3971216.9333826198
2,1, 1,21, 0, 3, 0.00,60.00,WinterDesignDay
12,755883376.4656907
48,0.0
435,0.0
1631,692067852.7723192
1685,20002691.821869
1709,19930691.821869
1748,10490739.35454788
1825,0.0
2122,72000.0
2,1, 1,21, 0, 4, 0.00,60.00,WinterDesignDay
12,605253445.3106999
48,0.0
435,0.0
1631,543536069.4882381
1685,18035558.35988162
1709,14064405.11476762
1748,8392591.483638306
1825,0.0
2122,3971153.245114001
2,1, 1,21, 0, 5, 0.00,60.00,WinterDesignDay
12,759655273.7816696
48,0.0
435,0.0
1631,695839750.0882982
1685,20466149.518023377
1709,20394149.518023377
1748,10490739.35454788
1825,0.0
2122,72000.0
2,1, 1,21, 0, 6, 0.00,60.00,WinterDesignDay
12,608009434.8172675
48,0.0
435,0.0
1631,546292058.9948056
1685,18327351.01911395
1709,14355977.796715532
1748,8392591.483638306
1825,0.0
2122,3971373.222398421
2,1, 1,21, 0, 7, 0.00,60.00,WinterDesignDay
12,802163528.1200268
48,0.0
435,0.0
1631,736249856.5557457
1685,4174757.3676661
1709,4102757.3676661
1748,12588887.225457456
1825,0.0
2122,72000.0
2,1, 1,21, 0, 8, 0.00,60.00,WinterDesignDay
12,708988829.8153858
48,0.0
435,18495296.7032967
1631,668991861.5478082
1685,506049039.60511818
1709,502077028.615171
1748,12588887.225457456
1825,0.0
2122,3972010.9899471697
2,1, 1,21, 0, 9, 0.00,60.00,WinterDesignDay
12,686025881.6003171
48,0.0
435,16183384.61538461
1631,657223225.4206516
1685,503282848.5483308
1709,499310132.4889555
1748,12588887.225457456
1825,0.0
2122,3972716.05937533
2,1, 1,21, 0,10, 0.00,60.00,WinterDesignDay
12,681865856.339775
48,0.0
435,24275076.923076918
1631,644971507.8524171
1685,505724580.8430815
1709,497848672.0825339
1748,12588887.225457456
1825,0.0
2122,7875908.76054758
2,1, 1,21, 0,11, 0.00,60.00,WinterDesignDay
12,675161150.1221881
48,0.0
435,20807208.791208786
1631,641734669.7666984
1685,500890817.7857126
1709,496917243.1922814
1748,12588887.225457456
1825,0.0
2122,3973574.5934312117
2,1, 1,21, 0,12, 0.00,60.00,WinterDesignDay
12,674080682.3467871
48,0.0
435,28898901.098901094
1631,632562509.6836051
1685,500229238.2746371
1709,496254928.922667
1748,12588887.225457456
1825,0.0
2122,3974309.351970106
2,1, 1,21, 0,13, 0.00,60.00,WinterDesignDay
12,668522809.7280471
48,0.0
435,24275076.923076918
1631,631628461.2406893
1685,503619244.83729186
1709,495743734.8925785
1748,12588887.225457456
1825,0.0
2122,7875509.9447133359
2,1, 1,21, 0,14, 0.00,60.00,WinterDesignDay
12,662229501.810538
48,0.0
435,15027428.571428566
1631,634582801.6748287
1685,499324884.4331512
1709,495351323.4579041
1748,12588887.225457456
1825,0.0
2122,3973560.975247088
2,1, 1,21, 0,15, 0.00,60.00,WinterDesignDay
12,658085617.0672767
48,0.0
435,9247648.35164835
1631,636218697.1513474
1685,499012692.99036768
1709,495039883.1238495
1748,12588887.225457456
1825,0.0
2122,3972809.866518226
2,1, 1,21, 0,16, 0.00,60.00,WinterDesignDay
12,654701514.3816518
48,0.0
435,4623824.175824175
1631,637458418.6415466
1685,498759616.6785395
1709,494787163.86161819
1748,12588887.225457456
1825,0.0
2122,3972452.8169213745
2,1, 1,21, 0,17, 0.00,60.00,WinterDesignDay
12,671411873.8943538
48,0.0
435,5779780.219780219
1631,635248022.1102926
1685,498541842.3277497
1709,494569432.48754957
1748,12588887.225457456
1825,0.0
2122,3972409.840200131
2,1, 1,21, 0,18, 0.00,60.00,WinterDesignDay
12,705925674.407167
48,0.0
435,6935736.263736261
1631,633076266.5791497
1685,494444256.4410168
1709,494372256.4410168
1748,12588887.225457456
1825,0.0
2122,72000.0
2,1, 1,21, 0,19, 0.00,60.00,WinterDesignDay
12,665507309.3421593
48,0.0
435,0.0
1631,602111415.2229698
1685,6795550.727256184
1709,2823920.1925370164
1748,10071109.780365967
1825,0.0
2122,3971630.5347191675
2,1, 1,21, 0,20, 0.00,60.00,WinterDesignDay
12,579019725.7836928
48,0.0
435,0.0
1631,517302349.961231
1685,9866292.615145546
1709,5895155.632294209
1748,8392591.483638306
1825,0.0
2122,3971136.9828513369
2,1, 1,21, 0,21, 0.00,60.00,WinterDesignDay
12,736757172.71959
48,0.0
435,0.0
1631,672941649.0262185
1685,13309399.617258087
1709,13237399.617258087
1748,10490739.35454788
1825,0.0
2122,72000.0
2,1, 1,21, 0,22, 0.00,60.00,WinterDesignDay
12,591820912.4779799
48,0.0
435,0.0
1631,530103536.655518
1685,14209324.812740703
1709,10237368.648026059
1748,8392591.483638306
1825,0.0
2122,3971956.164714642
2,1, 1,21, 0,23, 0.00,60.00,WinterDesignDay
12,745616978.0997487
48,0.0
435,0.0
1631,681801454.4063773
1685,16949420.612814245
1709,16877420.612814245
1748,10490739.35454788
1825,0.0
2122,72000.0
2,1, 1,21, 0,24, 0.00,60.00,WinterDesignDay
12,597275863.925364
48,0.0
435,0.0
1631,535558488.10290208
1685,16735135.142369086
1709,12764688.591614213
1748,8392591.483638306
1825,0.0
2122,3970446.5507548737
4,1, 1
14,16246831482.214919,8887464.056470588,21, 1,40,156947422.27362544,21, 6,30
1687,5705544732.990373,12000.0,21, 1,40,87749202.00602031,21, 8,20
2192,5848.801198061639,3.037471668096,21, 1,40,53.90134861316185,21, 6,30
2217,2.154525448637005,0.0010545320370974117,21, 1,40,0.01882258876242616,21, 6,30
2242,12.145680360927957,0.006640725862994823,21, 1,40,0.11727665632760534,21, 6,30
2267,10.37865081410457,0.005530347735936,21, 1,40,0.09790000287901614,21, 6,30
2292,0.13647744055619119,0.00007136128144534588,21, 1,40,0.0012655163107650619,21, 6,30
2317,30.415597620694759,0.016637335929712946,21, 1,40,0.2938069757834662,21, 6,30
2342,0.0,0.0,21, 1,10,0.0,21, 1,10
2367,0.30301530506715287,0.00015459607994202355,21, 1,40,0.0027480866479242945,21, 6,30
2392,0.0,0.0,21, 1,10,0.0,21, 1,10
2417,0.0,0.0,21, 1,10,0.0,21, 1,10
2442,0.18044668455687488,0.00009059457873543527,21, 1,40,0.0016129410975000883,21, 6,30
2467,0.0000922491981935719,5.011774181443765e-8,21, 1,40,8.856068980948571e-7,21, 6,30
2492,0.00045255225960405743,2.4689630748875298e-7,21, 1,40,0.000004361113100395523,21, 6,30
2517,7001.66300951682,3.8301024049347167,21, 1,40,67.63737053438362,21, 6,30
2542,0.0,0.0,21, 1,10,0.0,21, 1,10
2567,0.0,0.0,21, 1,10,0.0,21, 1,10
2839,1682.171737550669,0.8757346014500815,21, 1,40,15.536700637277799,21, 6,30
1,CHICAGO ANN CLG .4% CONDNS WB=>MDB HVAC Sizing Pass 1,  41.98, -87.92,  -6.00, 201.00
2,1, 7,21, 0, 1, 0.00,60.00,SummerDesignDay
12,524529057.56962487
48,192989952.8442144
435,192989952.8442144
1631,0.0
1685,72000.0
1709,0.0
1748,8034221.964511294
1825,77190145.57786119
2122,72000.0
2,1, 7,21, 0, 2, 0.00,60.00,SummerDesignDay
12,558561589.7877508
48,192989952.8442144
435,192989952.8442144
1631,0.0
1685,72000.0
1709,0.0
1748,9659574.14008421
1825,109597325.62041423
2122,72000.0
2,1, 7,21, 0, 3, 0.00,60.00,SummerDesignDay
12,546532614.2663013
48,192989952.8442144
435,192989952.8442144
1631,0.0
1685,3970831.772137754
1709,0.0
1748,8050459.780291431
1825,99177464.45875757
2122,3970831.772137754
2,1, 7,21, 0, 4, 0.00,60.00,SummerDesignDay
12,555479096.0306736
48,192989952.8442144
435,192989952.8442144
1631,0.0
1685,72000.0
1709,0.0
1748,9008996.414643625
1825,107165409.58877763
2122,72000.0
2,1, 7,21, 0, 5, 0.00,60.00,SummerDesignDay
12,504566409.4764728
48,192989952.8442144
435,192989952.8442144
1631,0.0
1685,3970647.9475630235
1709,0.0
1748,7402594.711099476
1825,84506324.73812104
2122,3970647.9475630235
2,1, 7,21, 0, 6, 0.00,60.00,SummerDesignDay
12,510871162.3700619
48,192989952.8442144
435,192989952.8442144
1631,0.0
1685,72000.0
1709,0.0
1748,9946726.369563878
1825,114914145.97324559
2122,72000.0
2,1, 7,21, 0, 7, 0.00,60.00,SummerDesignDay
12,661699508.0413449
48,192989952.8442144
435,192989952.8442144
1631,0.0
1685,3970388.7236058234
1709,0.0
1748,25957700.468373684
1825,249731517.5457188
2122,3970388.7236058234
2,1, 7,21, 0, 8, 0.00,60.00,SummerDesignDay
12,663521504.1847812
48,192989952.8442144
435,233448414.38267596
1631,0.0
1685,3972446.8002833838
1709,0.0
1748,26832471.342598779
1825,210220281.27646847
2122,3972446.8002833838
2,1, 7,21, 0, 9, 0.00,60.00,SummerDesignDay
12,742370097.2490072
48,192989952.8442144
435,272750919.8771814
1631,0.0
1685,3974425.150959064
1709,0.0
1748,31205019.613187475
1825,245393820.57560028
2122,3974425.150959064
2,1, 7,21, 0,10, 0.00,60.00,SummerDesignDay
12,725821298.2388504
48,192989952.8442144
435,242696062.73432429
1631,0.0
1685,7877771.417074017
1709,0.0
1748,30310597.06128443
1825,259794301.26020373
2122,7877771.417074017
2,1, 7,21, 0,11, 0.00,60.00,SummerDesignDay
12,735498449.6308225
48,192989952.8442144
435,235760326.47058804
1631,0.0
1685,3975138.7666828746
1709,0.0
1748,30261109.19848285
1825,276456676.7787138
2122,3975138.7666828746
2,1, 7,21, 0,12, 0.00,60.00,SummerDesignDay
12,758446270.5131681
48,192989952.8442144
435,242696062.73432429
1631,0.0
1685,7880065.320064668
1709,0.0
1748,30671357.24773667
1825,292058513.34806916
2122,7880065.320064668
2,1, 7,21, 0,13, 0.00,60.00,SummerDesignDay
12,796579315.4589202
48,192989952.8442144
435,260035403.3936649
1631,0.0
1685,11788320.94680292
1709,0.0
1748,32840745.297622477
1825,310682829.58459487
2122,11788320.94680292
2,1, 7,21, 0,14, 0.00,60.00,SummerDesignDay
12,800357376.9024104
48,192989952.8442144
435,248475842.95410455
1631,0.0
1685,7882426.16045437
1709,0.0
1748,34308479.03882916
1825,324552717.72643879
2122,7882426.16045437
2,1, 7,21, 0,15, 0.00,60.00,SummerDesignDay
12,794503626.7237252
48,192989952.8442144
435,235760326.47058804
1631,0.0
1685,3974340.3069115148
1709,0.0
1748,35182302.516993489
1825,330540660.55310586
2122,3974340.3069115148
2,1, 7,21, 0,16, 0.00,60.00,SummerDesignDay
12,792070028.0557814
48,192989952.8442144
435,235760326.47058804
1631,0.0
1685,7876391.068711309
1709,0.0
1748,35690609.473170649
1825,327598754.92898467
2122,7876391.068711309
2,1, 7,21, 0,17, 0.00,60.00,SummerDesignDay
12,794379752.0643635
48,192989952.8442144
435,246163930.8661924
1631,0.0
1685,7879406.210693892
1709,0.0
1748,35926594.492526497
1825,319268889.5226065
2122,7879406.210693892
2,1, 7,21, 0,18, 0.00,60.00,SummerDesignDay
12,801885759.4469967
48,192989952.8442144
435,264659227.56948919
1631,0.0
1685,3973296.6494111346
1709,0.0
1748,36074314.17493139
1825,308131880.5195381
2122,3973296.6494111346
2,1, 7,21, 0,19, 0.00,60.00,SummerDesignDay
12,689010734.8237498
48,192989952.8442144
435,206861425.371687
1631,0.0
1685,3972543.9708239815
1709,0.0
1748,26784245.856788964
1825,262344726.41223578
2122,3972543.9708239815
2,1, 7,21, 0,20, 0.00,60.00,SummerDesignDay
12,683315771.7414613
48,192989952.8442144
435,197613777.0200386
1631,0.0
1685,3971764.0439076
1709,0.0
1748,20995614.86888091
1825,227274042.66950388
2122,3971764.0439076
2,1, 7,21, 0,21, 0.00,60.00,SummerDesignDay
12,677128714.086693
48,192989952.8442144
435,197613777.0200386
1631,0.0
1685,72000.0
1709,0.0
1748,19701074.882649486
1825,213499125.000967
2122,72000.0
2,1, 7,21, 0,22, 0.00,60.00,SummerDesignDay
12,659651698.9014909
48,192989952.8442144
435,192989952.8442144
1631,0.0
1685,3971054.681913406
1709,0.0
1748,18740312.082614706
1825,201606696.79162384
2122,3971054.681913406
2,1, 7,21, 0,23, 0.00,60.00,SummerDesignDay
12,508211309.3580857
48,192989952.8442144
435,192989952.8442144
1631,0.0
1685,72000.0
1709,0.0
1748,6265120.504640781
1825,62641498.82619255
2122,72000.0
2,1, 7,21, 0,24, 0.00,60.00,SummerDesignDay
12,533183881.44073286
48,192989952.8442144
435,192989952.8442144
1631,0.0
1685,3970611.5670503408
1709,0.0
1748,8547108.59026072
1825,85332082.82321972
2122,3970611.5670503408
4,1, 7
14,16018175026.363272,64335048.337875399,21, 5,50,135012720.71369604,21,18,10
1687,99283871.50505108,12000.0,21, 1,10,3917721.497928315,21,13,40
2192,5478.58309621374,21.983911217052026,21, 5,50,46.21037804691955,21,14,60
2217,1.9037169845997353,0.007630615532872021,21, 5,50,0.016124534521877268,21,14,60
2242,11.968885620602434,0.048071160838060487,21, 5,50,0.10088151763727363,21,18,10
2267,9.971204628525415,0.04002983467582607,21, 5,50,0.08400548242806164,21,18,10
2292,0.12869915001543964,0.0005164944880564637,21, 5,50,0.001085037528132757,21,14,60
2317,29.9860502574296,0.12043521370450275,21, 5,50,0.2527438163920389,21,18,10
2342,0.0,0.0,21, 1,10,0.0,21, 1,10
2367,0.27891249280716048,0.0011188295705956533,21, 5,50,0.002355442468121513,21,14,60
2392,0.0,0.0,21, 1,10,0.0,21, 1,10
2417,0.0,0.0,21, 1,10,0.0,21, 1,10
2442,0.16348433442326983,0.0006556054625629502,21, 5,50,0.0013821997560005439,21,14,60
2467,0.00009033750948339955,3.627866695772794e-7,21, 5,50,7.613380641045316e-7,21,18,10
2492,0.00044500604969700233,0.0000017872301988261787,21, 5,50,0.0000037506559374264746,21,18,10
2517,6903.122229391398,27.725549357478096,21, 5,50,58.18448806280328,21,18,10
2542,0.0,0.0,21, 1,10,0.0,21, 1,10
2567,0.0,0.0,21, 1,10,0.0,21, 1,10
2839,1579.476361192966,6.33824371331522,21, 5,50,13.320237904942534,21,14,60
1,CHICAGO ANN HTG 99.6% CONDNS DB,  41.98, -87.92,  -6.00, 201.00
2,1, 1,21, 0, 1, 0.00,60.00,WinterDesignDay
12,751104810.9467988
48,0.0
435,0.0
1631,687289287.2534273
1685,19230751.070568205
1709,19158751.070568205
1748,10490739.35454788
1825,0.0
2122,72000.0
2,1, 1,21, 0, 2, 0.00,60.00,WinterDesignDay
12,601764258.9107409
48,0.0
435,0.0
1631,540046883.088279
1685,17563287.54067087
1709,13592070.607288253
1748,8392591.483638306
1825,0.0
2122,3971216.9333826198
2,1, 1,21, 0, 3, 0.00,60.00,WinterDesignDay
12,755883376.4656907
48,0.0
435,0.0
1631,692067852.7723192
1685,20002691.821869
1709,19930691.821869
1748,10490739.35454788
1825,0.0
2122,72000.0
2,1, 1,21, 0, 4, 0.00,60.00,WinterDesignDay
12,605253445.3106999
48,0.0
435,0.0
1631,543536069.4882381
1685,18035558.35988162
1709,14064405.11476762
1748,8392591.483638306
1825,0.0
2122,3971153.245114001
2,1, 1,21, 0, 5, 0.00,60.00,WinterDesignDay
12,759655273.7816696
48,0.0
435,0.0
1631,695839750.0882982
1685,20466149.518023377
1709,20394149.518023377
1748,10490739.35454788
1825,0.0
2122,72000.0
2,1, 1,21, 0, 6, 0.00,60.00,WinterDesignDay
12,608009434.8172675
48,0.0
435,0.0
1631,546292058.9948056
1685,18327351.01911395
1709,14355977.796715532
1748,8392591.483638306
1825,0.0
2122,3971373.222398421
2,1, 1,21, 0, 7, 0.00,60.00,WinterDesignDay
12,802163528.1200268
48,0.0
435,0.0
1631,736249856.5557457
1685,4174757.3676661
1709,4102757.3676661
1748,12588887.225457456
1825,0.0
2122,72000.0
2,1, 1,21, 0, 8, 0.00,60.00,WinterDesignDay
12,708988829.8153858
48,0.0
435,18495296.7032967
1631,668991861.5478082
1685,506049039.60511818
1709,502077028.615171
1748,12588887.225457456
1825,0.0
2122,3972010.9899471697
2,1, 1,21, 0, 9, 0.00,60.00,WinterDesignDay
12,686025881.6003171
48,0.0
435,16183384.61538461
1631,657223225.4206516
1685,503282848.5483308
1709,499310132.4889555
1748,12588887.225457456
1825,0.0
2122,3972716.05937533
2,1, 1,21, 0,10, 0.00,60.00,WinterDesignDay
12,681865856.339775
48,0.0
435,24275076.923076918
1631,644971507.8524171
1685,505724580.8430815
1709,497848672.0825339
1748,12588887.225457456
1825,0.0
2122,7875908.76054758
2,1, 1,21, 0,11, 0.00,60.00,WinterDesignDay
12,675161150.1221881
48,0.0
435,20807208.791208786
1631,641734669.7666984
1685,500890817.7857126
1709,496917243.1922814
1748,12588887.225457456
1825,0.0
2122,3973574.5934312117
2,1, 1,21, 0,12, 0.00,60.00,WinterDesignDay
12,674080682.3467871
48,0.0
435,28898901.098901094
1631,632562509.6836051
1685,500229238.2746371
1709,496254928.922667
1748,12588887.225457456
1825,0.0
2122,3974309.351970106
2,1, 1,21, 0,13, 0.00,60.00,WinterDesignDay
12,668522809.7280471
48,0.0
435,24275076.923076918
1631,631628461.2406893
1685,503619244.83729186
1709,495743734.8925785
1748,12588887.225457456
1825,0.0
2122,7875509.9447133359
2,1, 1,21, 0,14, 0.00,60.00,WinterDesignDay
12,662229501.810538
48,0.0
435,15027428.571428566
1631,634582801.6748287
1685,499324884.4331512
1709,495351323.4579041
1748,12588887.225457456
1825,0.0
2122,3973560.975247088
2,1, 1,21, 0,15, 0.00,60.00,WinterDesignDay
12,658085617.0672767
48,0.0
435,9247648.35164835
1631,636218697.1513474
1685,499012692.99036768
1709,495039883.1238495
1748,12588887.225457456
1825,0.0
2122,3972809.866518226
2,1, 1,21, 0,16, 0.00,60.00,WinterDesignDay
12,654701514.3816518
48,0.0
435,4623824.175824175
1631,637458418.6415466
1685,498759616.6785395
1709,494787163.86161819
1748,12588887.225457456
1825,0.0
2122,3972452.8169213745
2,1, 1,21, 0,17, 0.00,60.00,WinterDesignDay
12,671411873.8943538
48,0.0
435,5779780.219780219
1631,635248022.1102926
1685,498541842.3277497
1709,494569432.48754957
1748,12588887.225457456
1825,0.0
2122,3972409.840200131
2,1, 1,21, 0,18, 0.00,60.00,WinterDesignDay
12,705925674.407167
48,0.0
435,6935736.263736261
1631,633076266.5791497
1685,494444256.4410168
1709,494372256.4410168
1748,12588887.225457456
1825,0.0
2122,72000.0
2,1, 1,21, 0,19, 0.00,60.00,WinterDesignDay
12,665507309.3421593
48,0.0
435,0.0
1631,602111415.2229698
1685,6795550.727256184
1709,2823920.1925370164
1748,10071109.780365967
1825,0.0
2122,3971630.5347191675
2,1, 1,21, 0,20, 0.00,60.00,WinterDesignDay
12,579019725.7836928
48,0.0
435,0.0
1631,517302349.961231
1685,9866292.615145546
1709,5895155.632294209
1748,8392591.483638306
1825,0.0
2122,3971136.9828513369
2,1, 1,21, 0,21, 0.00,60.00,WinterDesignDay
12,736757172.71959
48,0.0
435,0.0
1631,672941649.0262185
1685,13309399.617258087
1709,13237399.617258087
1748,10490739.35454788
1825,0.0
2122,72000.0
2,1, 1,21, 0,22, 0.00,60.00,WinterDesignDay
12,591820912.4779799
48,0.0
435,0.0
1631,530103536.655518
1685,14209324.812740703
1709,10237368.648026059
1748,8392591.483638306
1825,0.0
2122,3971956.164714642
2,1, 1,21, 0,23, 0.00,60.00,WinterDesignDay
12,745616978.0997487
48,0.0
435,0.0
1631,681801454.4063773
1685,16949420.612814245
1709,16877420.612814245
1748,10490739.35454788
1825,0.0
2122,72000.0
2,1, 1,21, 0,24, 0.00,60.00,WinterDesignDay
12,597275863.925364
48,0.0
435,0.0
1631,535558488.10290208
1685,16735135.142369086
1709,12764688.591614213
1748,8392591.483638306
1825,0.0
2122,3970446.5507548737
4,1, 1
14,16246831482.214919,8887464.056470588,21, 1,40,156947422.27362544,21, 6,30
1687,5705544732.990373,12000.0,21, 1,40,87749202.00602031,21, 8,20
2192,5848.801198061639,3.037471668096,21, 1,40,53.90134861316185,21, 6,30
2217,2.154525448637005,0.0010545320370974117,21, 1,40,0.01882258876242616,21, 6,30
2242,12.145680360927957,0.006640725862994823,21, 1,40,0.11727665632760534,21, 6,30
2267,10.37865081410457,0.005530347735936,21, 1,40,0.09790000287901614,21, 6,30
2292,0.13647744055619119,0.00007136128144534588,21, 1,40,0.0012655163107650619,21, 6,30
2317,30.415597620694759,0.016637335929712946,21, 1,40,0.2938069757834662,21, 6,30
2342,0.0,0.0,21, 1,10,0.0,21, 1,10
2367,0.30301530506715287,0.00015459607994202355,21, 1,40,0.0027480866479242945,21, 6,30
2392,0.0,0.0,21, 1,10,0.0,21, 1,10
2417,0.0,0.0,21, 1,10,0.0,21, 1,10
2442,0.18044668455687488,0.00009059457873543527,21, 1,40,0.0016129410975000883,21, 6,30
2467,0.0000922491981935719,5.011774181443765e-8,21, 1,40,8.856068980948571e-7,21, 6,30
2492,0.00045255225960405743,2.4689630748875298e-7,21, 1,40,0.000004361113100395523,21, 6,30
2517,7001.66300951682,3.8301024049347167,21, 1,40,67.63737053438362,21, 6,30
2542,0.0,0.0,21, 1,10,0.0,21, 1,10
2567,0.0,0.0,21, 1,10,0.0,21, 1,10
2839,1682.171737550669,0.8757346014500815,21, 1,40,15.536700637277799,21, 6,30
1,CHICAGO ANN CLG .4% CONDNS WB=>MDB,  41.98, -87.92,  -6.00, 201.00
2,1, 7,21, 0, 1, 0.00,60.00,SummerDesignDay
12,524529057.5696431
48,192989952.8442144
435,192989952.8442144
1631,0.0
1685,72000.0
1709,0.0
1748,8034221.964509888
1825,77190145.57788089
2122,72000.0
2,1, 7,21, 0, 2, 0.00,60.00,SummerDesignDay
12,558561589.7878689
48,192989952.8442144
435,192989952.8442144
1631,0.0
1685,72000.0
1709,0.0
1748,9659574.1400831
1825,109597325.6205333
2122,72000.0
2,1, 7,21, 0, 3, 0.00,60.00,SummerDesignDay
12,546532614.2662428
48,192989952.8442144
435,192989952.8442144
1631,0.0
1685,3970831.772137754
1709,0.0
1748,8050459.780285241
1825,99177464.45870508
2122,3970831.772137754
2,1, 7,21, 0, 4, 0.00,60.00,SummerDesignDay
12,555479096.0306957
48,192989952.8442144
435,192989952.8442144
1631,0.0
1685,72000.0
1709,0.0
1748,9008996.414640269
1825,107165409.58880303
2122,72000.0
2,1, 7,21, 0, 5, 0.00,60.00,SummerDesignDay
12,504566409.01790896
48,192989952.8442144
435,192989952.8442144
1631,0.0
1685,3970647.9475630235
1709,0.0
1748,7402594.711150767
1825,84506324.27950582
2122,3970647.9475630235
2,1, 7,21, 0, 6, 0.00,60.00,SummerDesignDay
12,510871162.3755175
48,192989952.8442144
435,192989952.8442144
1631,0.0
1685,72000.0
1709,0.0
1748,9946726.369574525
1825,114914145.97869054
2122,72000.0
2,1, 7,21, 0, 7, 0.00,60.00,SummerDesignDay
12,661699508.0423889
48,192989952.8442144
435,192989952.8442144
1631,0.0
1685,3970388.7236058234
1709,0.0
1748,25957700.46863221
1825,249731517.54650439
2122,3970388.7236058234
2,1, 7,21, 0, 8, 0.00,60.00,SummerDesignDay
12,663521504.1852611
48,192989952.8442144
435,233448414.38267596
1631,0.0
1685,3972446.8002833838
1709,0.0
1748,26832471.342752644
1825,210220281.27679459
2122,3972446.8002833838
2,1, 7,21, 0, 9, 0.00,60.00,SummerDesignDay
12,742370097.249092
48,192989952.8442144
435,272750919.8771814
1631,0.0
1685,3974425.150959064
1709,0.0
1748,31205019.613238664
1825,245393820.57563398
2122,3974425.150959064
2,1, 7,21, 0,10, 0.00,60.00,SummerDesignDay
12,725821298.2386783
48,192989952.8442144
435,242696062.73432429
1631,0.0
1685,7877771.417074017
1709,0.0
1748,30310597.061188595
1825,259794301.26012746
2122,7877771.417074017
2,1, 7,21, 0,11, 0.00,60.00,SummerDesignDay
12,735498449.6302285
48,192989952.8442144
435,235760326.47058804
1631,0.0
1685,3975138.7666828746
1709,0.0
1748,30261109.19830461
1825,276456676.77829799
2122,3975138.7666828746
2,1, 7,21, 0,12, 0.00,60.00,SummerDesignDay
12,758446270.5124176
48,192989952.8442144
435,242696062.73432429
1631,0.0
1685,7880065.320064668
1709,0.0
1748,30671357.24752239
1825,292058513.34753307
2122,7880065.320064668
2,1, 7,21, 0,13, 0.00,60.00,SummerDesignDay
12,796579315.4579742
48,192989952.8442144
435,260035403.3936649
1631,0.0
1685,11788320.94680292
1709,0.0
1748,32840745.297339247
1825,310682829.58393207
2122,11788320.94680292
2,1, 7,21, 0,14, 0.00,60.00,SummerDesignDay
12,800357376.9013159
48,192989952.8442144
435,248475842.95410455
1631,0.0
1685,7882426.16045437
1709,0.0
1748,34308479.038513097
1825,324552717.72566029
2122,7882426.16045437
2,1, 7,21, 0,15, 0.00,60.00,SummerDesignDay
12,794503626.7223795
48,192989952.8442144
435,235760326.47058804
1631,0.0
1685,3974340.3069115148
1709,0.0
1748,35182302.51662709
1825,330540660.5521264
2122,3974340.3069115148
2,1, 7,21, 0,16, 0.00,60.00,SummerDesignDay
12,792070028.0542619
48,192989952.8442144
435,235760326.47058804
1631,0.0
1685,7876391.068711309
1709,0.0
1748,35690609.4727925
1825,327598754.9278434
2122,7876391.068711309
2,1, 7,21, 0,17, 0.00,60.00,SummerDesignDay
12,794379752.0633125
48,192989952.8442144
435,246163930.8661924
1631,0.0
1685,7879406.210693892
1709,0.0
1748,35926594.4922101
1825,319268889.52187207
2122,7879406.210693892
2,1, 7,21, 0,18, 0.00,60.00,SummerDesignDay
12,801885759.4461156
48,192989952.8442144
435,264659227.56948919
1631,0.0
1685,3973296.6494111346
1709,0.0
1748,36074314.17465573
1825,308131880.51893278
2122,3973296.6494111346
2,1, 7,21, 0,19, 0.00,60.00,SummerDesignDay
12,689010734.8230558
48,192989952.8442144
435,206861425.371687
1631,0.0
1685,3972543.9708239815
1709,0.0
1748,26784245.856621848
1825,262344726.4117089
2122,3972543.9708239815
2,1, 7,21, 0,20, 0.00,60.00,SummerDesignDay
12,683315771.7415137
48,192989952.8442144
435,197613777.0200386
1631,0.0
1685,3971764.0439076
1709,0.0
1748,20995614.868866188
1825,227274042.66957105
2122,3971764.0439076
2,1, 7,21, 0,21, 0.00,60.00,SummerDesignDay
12,677128714.0864475
48,192989952.8442144
435,197613777.0200386
1631,0.0
1685,72000.0
1709,0.0
1748,19701074.88263647
1825,213499125.00073443
2122,72000.0
2,1, 7,21, 0,22, 0.00,60.00,SummerDesignDay
12,659651698.9014665
48,192989952.8442144
435,192989952.8442144
1631,0.0
1685,3971054.681913406
1709,0.0
1748,18740312.08261583
1825,201606696.79159839
2122,3971054.681913406
2,1, 7,21, 0,23, 0.00,60.00,SummerDesignDay
12,508211309.35811409
48,192989952.8442144
435,192989952.8442144
1631,0.0
1685,72000.0
1709,0.0
1748,6265120.5046380539
1825,62641498.826223697
2122,72000.0
2,1, 7,21, 0,24, 0.00,60.00,SummerDesignDay
12,533183881.4407783
48,192989952.8442144
435,192989952.8442144
1631,0.0
1685,3970611.5670503408
1709,0.0
1748,8547108.590266949
1825,85332082.82325897
2122,3970611.5670503408
4,1, 7
14,16018175025.902672,64335048.337875399,21, 5,50,135012720.71359117,21,18,10
1687,99283871.50505108,12000.0,21, 1,10,3917721.497928315,21,13,40
2192,5478.583096056359,21.983911217052026,21, 5,50,46.21037804688684,21,14,60
2217,1.9037169845451095,0.007630615532872021,21, 5,50,0.016124534521865909,21,14,60
2242,11.96888562025827,0.048071160838060487,21, 5,50,0.10088151763719532,21,18,10
2267,9.971204628238834,0.04002983467582607,21, 5,50,0.08400548242799642,21,18,10
2292,0.12869915001174213,0.0005164944880564637,21, 5,50,0.0010850375281319884,21,14,60
2317,29.986050256567368,0.12043521370450275,21, 5,50,0.2527438163918427,21,18,10
2342,0.0,0.0,21, 1,10,0.0,21, 1,10
2367,0.27891249279915078,0.0011188295705956533,21, 5,50,0.002355442468119848,21,14,60
2392,0.0,0.0,21, 1,10,0.0,21, 1,10
2417,0.0,0.0,21, 1,10,0.0,21, 1,10
2442,0.1634843344185765,0.0006556054625629502,21, 5,50,0.0013821997559995683,21,14,60
2467,0.00009033750948080222,3.627866695772794e-7,21, 5,50,7.613380641039405e-7,21,18,10
2492,0.00044500604968420685,0.0000017872301988261787,21, 5,50,0.0000037506559374235629,21,18,10
2517,6903.122229192904,27.725549357478096,21, 5,50,58.184488062758109,21,18,10
2542,0.0,0.0,21, 1,10,0.0,21, 1,10
2567,0.0,0.0,21, 1,10,0.0,21, 1,10
2839,1579.4763611475917,6.33824371331522,21, 5,50,13.320237904933104,21,14,60
1,ANNUAL,  41.98, -87.92,  -6.00, 201.00
2,1, 1, 1, 0, 1, 0.00,60.00,Holiday
12,312965214.2094753
48,9649497.642210719
435,57896985.85326433
1631,182286476.05962003
1685,13589796.124201838
1709,13517796.124201838
1748,9807470.315556702
1825,0.0
2122,72000.0
2,1, 1, 1, 0, 2, 0.00,60.00,Holiday
12,306631275.845471
48,9649497.642210719
435,57896985.85326433
1631,177367416.52753417
1685,17789617.146169835
1709,17717617.146169835
1748,8392591.483638306
1825,0.0
2122,72000.0
2,1, 1, 1, 0, 3, 0.00,60.00,Holiday
12,367147516.1588555
48,9649497.642210719
435,57896985.85326433
1631,235785508.970009
1685,29281346.408427568
1709,25310614.609381919
1748,10490739.35454788
1825,0.0
2122,3970731.799045646
2,1, 1, 1, 0, 4, 0.00,60.00,Holiday
12,314026354.7390871
48,9649497.642210719
435,57896985.85326433
1631,184762495.42115019
1685,20073989.010721178
1709,20001989.010721178
1748,8392591.483638306
1825,0.0
2122,72000.0
2,1, 1, 1, 0, 5, 0.00,60.00,Holiday
12,376611664.57968989
48,9649497.642210719
435,57896985.85326433
1631,245249657.39084343
1685,31896594.203364768
1709,27925599.376232376
1748,10490739.35454788
1825,0.0
2122,3970994.8271323966
2,1, 1, 1, 0, 6, 0.00,60.00,Holiday
12,319934190.5159836
48,9649497.642210719
435,57896985.85326433
1631,190670331.19804669
1685,21958933.341348865
1709,21886933.341348865
1748,8392591.483638306
1825,0.0
2122,72000.0
2,1, 1, 1, 0, 7, 0.00,60.00,Holiday
12,383634484.5321513
48,9649497.642210719